 operating system is UNIX !
 hostname is         pauli05

 force (pauli05) : TURBOMOLE V7.0( 19819 ) 16 Jun 2015 at 11:29:46
 Copyright (C) 2015 TURBOMOLE GmbH, Karlsruhe


    2016-06-28 23:25:20.316 



                             T U R B O M O L E   

                          a o f o r c e - program

                        using direct algorithms for

                       SCF level calculations of
                         * harmonic force constants
                         * hyperpolarizabilities
                         * IR and RAMAN intensities

                       DFT level calculations of
                         * harmonic force constants
                         * IR intensities
                                                   
       Stephan Boecker, Peter Deglmann, Filipp Furche and Marco Haeser
                          Quantum Chemistry Group
                          Universitaet  Karlsruhe
                                   Germany

 
 
 
 
     References :
 
       RI-J implementation:
         Peter Deglmann, Klaus May, Filipp Furche, Reinhart Ahlrichs
                 Chem. Phys. Lett. 384:103 (2004)
 
       Efficiency, technical details:
         Peter Deglmann, Filipp Furche, Reinhart Ahlrichs
                 Chem. Phys. Lett. 362:511 (2002)
 
       Search of lowest eigenvalues by iterative diagonalization:
         Peter Deglmann, Filipp Furche
                 J. Chem. Phys. 117:9535 (2002)
 
 


              +--------------------------------------------------+
              | Atomic coordinate, charge and isotop information |
              +--------------------------------------------------+

                    atomic coordinates            atom    charge  isotop
          2.56467643    0.00000000   -4.38817698    f      9.000     0
          5.14136903    0.00000000    0.03686639    f      9.000     0
         -2.56467643    0.00000000   -4.38817698    f      9.000     0
         -5.14136903    0.00000000    0.03686639    f      9.000     0
          1.31416209    0.00000000   -2.20321749    c      6.000     0
          2.61024755    0.00000000    0.08579879    c      6.000     0
         -1.31416209    0.00000000   -2.20321749    c      6.000     0
         -2.61024755    0.00000000    0.08579879    c      6.000     0
          1.31835588    0.00000000    2.36221510    c      6.000     0
         -1.31835588    0.00000000    2.36221510    c      6.000     0
         -2.37744997    0.00000000    4.10650809    h      1.000     0
          2.37744997    0.00000000    4.10650809    h      1.000     0
 
       center of nuclear mass  :    0.00000000    0.00000000   -1.00733221
       center of nuclear charge:    0.00000000    0.00000000   -0.90774348

   *************************************************************************
   TFB                                                                      
   *************************************************************************



              +--------------------------------------------------+
              |               basis set information              |
              +--------------------------------------------------+

              we will work with the 1s 3p 5d 7f 9g ... basis set
              ...i.e. with spherical basis functions...

   type   atoms  prim   cont   basis
   ---------------------------------------------------------------------------
    f        4     55     40   def2-TZVPPD   [6s4p3d1f|12s7p3d1f]
    c        6     52     37   def2-TZVPPD   [6s3p3d1f|12s6p3d1f]
    h        2     19     17   def2-TZVPPD   [3s3p1d|5s3p1d]
   ---------------------------------------------------------------------------
   total:   12    570    416
   ---------------------------------------------------------------------------

   total number of primitive shells          :   54
   total number of contracted shells         :  148
   total number of cartesian basis functions :  478
   total number of SCF-basis functions       :  416


 symmetry group of the molecule :   c2v

 the group has the following generators :
   c2(z)
   mirror plane sigma(xz)

    4 symmetry operations found

 there are 4 real representations :   a1   a2   b1   b2  

 maximum number of shells which are related by symmetry :  2


 determining totally symmetric integral contributions 
    - equivalent to irreducible tensor elements - 
 which can be formed within each triple of representations :

             representation triple      contributions

              a1    a1    a1              1
              a1    a2    a2              1
              a1    b1    b1              1
              a1    b2    b2              1
              a2    a1    a2              1
              a2    a2    a1              1
              a2    b1    b2              1
              a2    b2    b1              1
              b1    a1    b1              1
              b1    a2    b2              1
              b1    b1    a1              1
              b1    b2    a2              1
              b2    a1    b2              1
              b2    a2    b1              1
              b2    b1    a2              1
              b2    b2    a1              1

 reading cartesian hessian from $hessian,
 file=<hessian>


 actual cartesian coordinates & gradients will be read from $grad 

            ----------------------------
            actual cartesian coordinates
            ----------------------------
    1 f       2.56467643338415      0.00000000000000     -4.38817698314959
    2 f       5.14136902907732      0.00000000000000      0.03686639329037
    3 f      -2.56467643338415      0.00000000000000     -4.38817698314959
    4 f      -5.14136902907732      0.00000000000000      0.03686639329037
    5 c       1.31416208952433      0.00000000000000     -2.20321748985782
    6 c       2.61024754658920      0.00000000000000      0.08579879477505
    7 c      -1.31416208952433      0.00000000000000     -2.20321748985782
    8 c      -2.61024754658920      0.00000000000000      0.08579879477505
    9 c       1.31835587868418      0.00000000000000      2.36221509582937
   10 c      -1.31835587868418      0.00000000000000      2.36221509582937
   11 h      -2.37744997126561      0.00000000000000      4.10650809131258
   12 h       2.37744997126561      0.00000000000000      4.10650809131258

              --------------------------
              actual cartesian gradients
              --------------------------
    1 f       0.00000169438540      0.00000000000000      0.00000244828353
    2 f       0.00000221707968      0.00000000000000     -0.00000029525562
    3 f      -0.00000169438540      0.00000000000000      0.00000244828353
    4 f      -0.00000221707968      0.00000000000000     -0.00000029525562
    5 c      -0.00000212653951      0.00000000000000     -0.00000034239867
    6 c      -0.00000268424967      0.00000000000000      0.00000311530762
    7 c       0.00000212653951      0.00000000000000     -0.00000034239867
    8 c       0.00000268424967      0.00000000000000      0.00000311530762
    9 c      -0.00000267733558      0.00000000000000     -0.00000152600885
   10 c       0.00000267733558      0.00000000000000     -0.00000152600885
   11 h      -0.00000444583901      0.00000000000000     -0.00000339992763
   12 h       0.00000444583901      0.00000000000000     -0.00000339992763

 dipole moment read from <control>

                -----------------------
                permanent dipole moment
                -----------------------
             x              y             z
          0.0000000      0.0000000      2.4677355      (debyes)

 dipole derivatives read from <dipgrad>

        ----------------------------------------------------
        cartesian dipole derivative matrix (debyes/angstrom)
        ----------------------------------------------------

  atom       1 f                              2 f 
            x          y          z          x          y          z
 
  x     -1.990135   0.000000   2.094252  -5.884468   0.000000   0.108833
  y      0.000000  -0.394273   0.000000   0.000000  -0.482139   0.000000
  z      2.153833   0.000000  -4.492274   0.052356   0.000000  -0.823125

  atom       3 f                              4 f 
            x          y          z          x          y          z
 
  x     -1.990135   0.000000  -2.094252  -5.884468   0.000000  -0.108833
  y      0.000000  -0.394273   0.000000   0.000000  -0.482139   0.000000
  z     -2.153833   0.000000  -4.492274  -0.052356   0.000000  -0.823125

  atom       5 c                              6 c 
            x          y          z          x          y          z
 
  x      1.650799   0.000000  -2.329312   6.313076   0.000000  -0.342576
  y      0.000000   0.420631   0.000000   0.000000   0.354870   0.000000
  z     -2.702973   0.000000   4.807464   0.282458   0.000000   0.345434

  atom       7 c                              8 c 
            x          y          z          x          y          z
 
  x      1.650799   0.000000   2.329312   6.313076   0.000000   0.342576
  y      0.000000   0.420631   0.000000   0.000000   0.354870   0.000000
  z      2.702973   0.000000   4.807464  -0.282458   0.000000   0.345434

  atom       9 c                             10 c 
            x          y          z          x          y          z
 
  x     -0.347834   0.000000  -0.408784  -0.347834   0.000000   0.408784
  y      0.000000  -0.633351   0.000000   0.000000  -0.633351   0.000000
  z      0.574772   0.000000  -0.020429  -0.574772   0.000000  -0.020429

  atom      11 h                             12 h 
            x          y          z          x          y          z
 
  x      0.259728   0.000000   0.145286   0.259728   0.000000  -0.145286
  y      0.000000   0.733850   0.000000   0.000000   0.733850   0.000000
  z      0.167901   0.000000   0.183609  -0.167901   0.000000   0.183609
 

             -----------------------------------
             rotational and vibrational analysis
             -----------------------------------


            ==============================================================
            ATOMIC WEIGHTS (average over the natural occurance of isotops)
            ==============================================================
            ('*' denotes special isotop !)
              1     f                18.99840
              2     f                18.99840
              3     f                18.99840
              4     f                18.99840
              5     c                12.01115
              6     c                12.01115
              7     c                12.01115
              8     c                12.01115
              9     c                12.01115
             10     c                12.01115
             11     h                 1.00797
             12     h                 1.00797

          -------------------------------------------------
          CARTESIAN FORCE CONSTANT MATRIX (hartree/bohr**2)
         (translational & rotational space projected out)
          -------------------------------------------------

   ATOM              1 f                           2 f 
                  dx        dy        dz        dx        dy        dz
   1 f     dx  0.1598457
           dy  0.0000000 0.0221612
           dz -0.1652056 0.0000000 0.3516868
   2 f     dx  0.0096813 0.0000000-0.0033508 0.4303944
           dy  0.0000000-0.0045627 0.0000000 0.0000000 0.0226053
           dz -0.0021345 0.0000000 0.0066384-0.0068336 0.0000000 0.0663830
   3 f     dx  0.0052361 0.0000000 0.0007420-0.0033558 0.0000000-0.0025479
           dy  0.0000000-0.0049021 0.0000000 0.0000000 0.0001181 0.0000000
           dz -0.0007420 0.0000000 0.0114507-0.0033753 0.0000000 0.0002112
   4 f     dx -0.0033558 0.0000000 0.0033753-0.0057407 0.0000000 0.0002334
           dy  0.0000000 0.0001181 0.0000000 0.0000000-0.0001002 0.0000000
           dz  0.0025479 0.0000000 0.0002112-0.0002334 0.0000000 0.0003511
   5 c     dx -0.1450387 0.0000000 0.1257755-0.0533952 0.0000000-0.0401213
           dy  0.0000000-0.0360919 0.0000000 0.0000000 0.0068998 0.0000000
           dz  0.1260334 0.0000000-0.2919367 0.0075952 0.0000000 0.0008482
   6 c     dx  0.0031155 0.0000000 0.0394570-0.3456773 0.0000000 0.0047263
           dy  0.0000000 0.0065269 0.0000000 0.0000000-0.0367557 0.0000000
           dz -0.0076974 0.0000000-0.0484372 0.0024110 0.0000000-0.0728294
   7 c     dx -0.0239598 0.0000000 0.0075755 0.0041811 0.0000000 0.0053847
           dy  0.0000000 0.0066511 0.0000000 0.0000000 0.0059532 0.0000000
           dz  0.0549708 0.0000000-0.0243308-0.0001736 0.0000000-0.0083345
   8 c     dx -0.0026500 0.0000000-0.0042667 0.0035503 0.0000000-0.0001143
           dy  0.0000000 0.0063111 0.0000000 0.0000000-0.0020556 0.0000000
           dz -0.0083629 0.0000000-0.0009052 0.0016936 0.0000000 0.0034949
   9 c     dx -0.0043466 0.0000000-0.0081757-0.0384375 0.0000000 0.0444934
           dy  0.0000000 0.0055571 0.0000000 0.0000000 0.0049540 0.0000000
           dz -0.0013851 0.0000000-0.0021249-0.0002615 0.0000000 0.0078717
  10 c     dx  0.0006790 0.0000000 0.0024959-0.0012810 0.0000000-0.0031321
           dy  0.0000000-0.0023336 0.0000000 0.0000000 0.0071529 0.0000000
           dz  0.0023941 0.0000000-0.0008365 0.0033225 0.0000000-0.0076733
  11 h     dx  0.0002958 0.0000000 0.0000858-0.0015327 0.0000000 0.0015745
           dy  0.0000000 0.0003113 0.0000000 0.0000000 0.0005247 0.0000000
           dz  0.0001003 0.0000000 0.0001792-0.0003958 0.0000000 0.0002974
  12 h     dx  0.0004976 0.0000000 0.0014916 0.0016132 0.0000000-0.0015287
           dy  0.0000000 0.0002535 0.0000000 0.0000000-0.0047338 0.0000000
           dz -0.0005190 0.0000000-0.0015951-0.0003981 0.0000000 0.0027412

   ATOM              3 f                           4 f 
                  dx        dy        dz        dx        dy        dz
   3 f     dx  0.1598457
           dy  0.0000000 0.0221612
           dz  0.1652056 0.0000000 0.3516868
   4 f     dx  0.0096813 0.0000000 0.0033508 0.4303944
           dy  0.0000000-0.0045627 0.0000000 0.0000000 0.0226053
           dz  0.0021345 0.0000000 0.0066384 0.0068336 0.0000000 0.0663830
   5 c     dx -0.0239598 0.0000000-0.0075755 0.0041811 0.0000000-0.0053847
           dy  0.0000000 0.0066511 0.0000000 0.0000000 0.0059532 0.0000000
           dz -0.0549708 0.0000000-0.0243308 0.0001736 0.0000000-0.0083345
   6 c     dx -0.0026500 0.0000000 0.0042667 0.0035503 0.0000000 0.0001143
           dy  0.0000000 0.0063111 0.0000000 0.0000000-0.0020556 0.0000000
           dz  0.0083629 0.0000000-0.0009052-0.0016936 0.0000000 0.0034949
   7 c     dx -0.1450387 0.0000000-0.1257755-0.0533952 0.0000000 0.0401213
           dy  0.0000000-0.0360919 0.0000000 0.0000000 0.0068998 0.0000000
           dz -0.1260334 0.0000000-0.2919367-0.0075952 0.0000000 0.0008482
   8 c     dx  0.0031155 0.0000000-0.0394570-0.3456773 0.0000000-0.0047263
           dy  0.0000000 0.0065269 0.0000000 0.0000000-0.0367557 0.0000000
           dz  0.0076974 0.0000000-0.0484372-0.0024110 0.0000000-0.0728294
   9 c     dx  0.0006790 0.0000000-0.0024959-0.0012810 0.0000000 0.0031321
           dy  0.0000000-0.0023336 0.0000000 0.0000000 0.0071529 0.0000000
           dz -0.0023941 0.0000000-0.0008365-0.0033225 0.0000000-0.0076733
  10 c     dx -0.0043466 0.0000000 0.0081757-0.0384375 0.0000000-0.0444934
           dy  0.0000000 0.0055571 0.0000000 0.0000000 0.0049540 0.0000000
           dz  0.0013851 0.0000000-0.0021249 0.0002615 0.0000000 0.0078717
  11 h     dx  0.0004976 0.0000000-0.0014916 0.0016132 0.0000000 0.0015287
           dy  0.0000000 0.0002535 0.0000000 0.0000000-0.0047338 0.0000000
           dz  0.0005190 0.0000000-0.0015951 0.0003981 0.0000000 0.0027412
  12 h     dx  0.0002958 0.0000000-0.0000858-0.0015327 0.0000000-0.0015745
           dy  0.0000000 0.0003113 0.0000000 0.0000000 0.0005247 0.0000000
           dz -0.0001003 0.0000000 0.0001792 0.0003958 0.0000000 0.0002974

   ATOM              5 c                           6 c 
                  dx        dy        dz        dx        dy        dz
   5 c     dx  0.7230325
           dy  0.0000000 0.1012638
           dz -0.0073264 0.0000000 0.7281188
   6 c     dx -0.1568112 0.0000000-0.1482761 0.7062411
           dy  0.0000000-0.0369264 0.0000000 0.0000000 0.1096337
           dz -0.0453335 0.0000000-0.2734322-0.0074957 0.0000000 0.7114941
   7 c     dx -0.3382293 0.0000000 0.0524684-0.0223167 0.0000000-0.0858764
           dy  0.0000000-0.0325340 0.0000000 0.0000000-0.0243026 0.0000000
           dz -0.0524684 0.0000000-0.1056131-0.0263034 0.0000000 0.0466219
   8 c     dx -0.0223167 0.0000000 0.0263034-0.0053634 0.0000000 0.0012059
           dy  0.0000000-0.0243026 0.0000000 0.0000000 0.0231306 0.0000000
           dz  0.0858764 0.0000000 0.0466219-0.0012059 0.0000000-0.0808700
   9 c     dx  0.0657656 0.0000000 0.0288558-0.1642661 0.0000000 0.0438892
           dy  0.0000000-0.0181253 0.0000000 0.0000000-0.0380857 0.0000000
           dz -0.0242072 0.0000000-0.0502319 0.1266975 0.0000000-0.3066878
  10 c     dx -0.0499940 0.0000000-0.0320518-0.0230371 0.0000000 0.0786198
           dy  0.0000000 0.0240307 0.0000000 0.0000000-0.0184269 0.0000000
           dz -0.0311464 0.0000000-0.0192352 0.0275135 0.0000000 0.0382107
  11 h     dx -0.0014584 0.0000000-0.0010571-0.0041267 0.0000000-0.0015669
           dy  0.0000000-0.0020793 0.0000000 0.0000000 0.0066183 0.0000000
           dz -0.0013978 0.0000000-0.0003171-0.0011875 0.0000000 0.0017071
  12 h     dx -0.0017759 0.0000000 0.0022524 0.0113416 0.0000000 0.0151748
           dy  0.0000000 0.0052609 0.0000000 0.0000000 0.0043324 0.0000000
           dz  0.0033092 0.0000000-0.0021573-0.0183066 0.0000000-0.0183668

   ATOM              7 c                           8 c 
                  dx        dy        dz        dx        dy        dz
   7 c     dx  0.7230325
           dy  0.0000000 0.1012638
           dz  0.0073264 0.0000000 0.7281188
   8 c     dx -0.1568112 0.0000000 0.1482761 0.7062411
           dy  0.0000000-0.0369264 0.0000000 0.0000000 0.1096337
           dz  0.0453335 0.0000000-0.2734322 0.0074957 0.0000000 0.7114941
   9 c     dx -0.0499940 0.0000000 0.0320518-0.0230371 0.0000000-0.0786198
           dy  0.0000000 0.0240307 0.0000000 0.0000000-0.0184269 0.0000000
           dz  0.0311464 0.0000000-0.0192352-0.0275135 0.0000000 0.0382107
  10 c     dx  0.0657656 0.0000000-0.0288558-0.1642661 0.0000000-0.0438892
           dy  0.0000000-0.0181253 0.0000000 0.0000000-0.0380857 0.0000000
           dz  0.0242072 0.0000000-0.0502319-0.1266975 0.0000000-0.3066878
  11 h     dx -0.0017759 0.0000000-0.0022524 0.0113416 0.0000000-0.0151748
           dy  0.0000000 0.0052609 0.0000000 0.0000000 0.0043324 0.0000000
           dz -0.0033092 0.0000000-0.0021573 0.0183066 0.0000000-0.0183668
  12 h     dx -0.0014584 0.0000000 0.0010571-0.0041267 0.0000000 0.0015669
           dy  0.0000000-0.0020793 0.0000000 0.0000000 0.0066183 0.0000000
           dz  0.0013978 0.0000000-0.0003171 0.0011875 0.0000000 0.0017071

   ATOM              9 c                          10 c 
                  dx        dy        dz        dx        dy        dz
   9 c     dx  0.7050428
           dy  0.0000000 0.0985614
           dz  0.0368109 0.0000000 0.7369347
  10 c     dx -0.3459509 0.0000000-0.0322636 0.7050428
           dy  0.0000000-0.0336033 0.0000000 0.0000000 0.0985614
           dz  0.0322636 0.0000000-0.1241961-0.0368109 0.0000000 0.7369347
  11 h     dx -0.0094419 0.0000000 0.0273714-0.1347324 0.0000000 0.1306787
           dy  0.0000000 0.0012390 0.0000000 0.0000000-0.0309204 0.0000000
           dz -0.0030833 0.0000000 0.0058818 0.1291221 0.0000000-0.2779130
  12 h     dx -0.1347324 0.0000000-0.1306787-0.0094419 0.0000000-0.0273714
           dy  0.0000000-0.0309204 0.0000000 0.0000000 0.0012390 0.0000000
           dz -0.1291221 0.0000000-0.2779130 0.0030833 0.0000000 0.0058818

   ATOM             11 h                          12 h 
                  dx        dy        dz        dx        dy        dz
  11 h     dx  0.1379996
           dy  0.0000000 0.0234564
           dz -0.1393844 0.0000000 0.2888740
  12 h     dx  0.0013202 0.0000000 0.0003119 0.1379996
           dy  0.0000000-0.0042631 0.0000000 0.0000000 0.0234564
           dz -0.0003119 0.0000000 0.0006685 0.1393844 0.0000000 0.2888740
 

   *** projected hessian written onto $hessian (projected), file=<hessian> ***

 dipole moment in principle axis system (a.u.) :
     0.0000000000     0.0000000000     0.9708745249
 norm :  0.970874524853930     

 rotational constants b for rotations around axis of inertia
 and optical intensities for (1 <-- 0) transition

   b   :     0.0696543582     0.0253270620     0.0397980568   (cm**(-1))
   b   :        2088.1851         759.2862        1193.1157     (MHz)
  int. :     0.0000000000     0.0000000000     0.9425973430     (a.u.)

   x   :     1.0000000000     0.0000000000     0.0000000000
   y   :     0.0000000000     1.0000000000     0.0000000000
   z   :     0.0000000000     0.0000000000     1.0000000000

   ***  normal modes written onto $vibrational normal modes, file=<control>  ***

 keyword $vibrational reduced masses missing in file <control>


   ***  vibrational spectroscopic data written onto$vibrational spectrum   
        file=<control>  ***

          ---------------------------------------------------
          NORMAL MODES and VIBRATIONAL FREQUENCIES (cm**(-1))
          ---------------------------------------------------

 imaginary wave numbers indicate a negative curvature of the energy surface.
 zero frequency modes have no physical meaning except being generators of
 translations and rotations. each vibrational normal mode - given in terms of
 cartesian displacement vectors of all atoms - has been normalized to unity.
 to obtain mass-weigthed normal coordinates in a.u. divide the tabulated
 modes by sqrt(reduced mass * 1822.88853).
 band intensities or cross sections refer to independent non-degenerate normal
 modes, that is, the intensities of degenerate modes have yet to be added.
 dDIP/dQ is the normal mode derivative of the dipole moment.


       mode               1        2        3        4        5        6

     frequency           0.00     0.00     0.00     0.00     0.00     0.00

     symmetry                                                             

        IR                -        -        -        -        -        - 
|dDIP/dQ|   (a.u.)     0.0000   0.0000   0.0000   0.0000   0.0000   0.0000
intensity (km/mol)       0.00     0.00     0.00     0.00     0.00     0.00
intensity (  %   )       0.00     0.00     0.00     0.00     0.00     0.00
 
       RAMAN              -        -        -        -        -        - 
 
  1   f           x   0.21431  0.24001 -0.12956 -0.03765 -0.07026  0.13622
                  y   0.05887  0.01441 -0.00516 -0.06066  0.52735  0.12527
                  z   0.00521  0.00730 -0.34072  0.02586  0.00049 -0.00146
  2   f           x   0.09127  0.04386  0.02430 -0.17025 -0.08188  0.17076
                  y  -0.11866 -0.05346  0.01824  0.21419  0.20570  0.42220
                  z   0.07685  0.12152 -0.43031  0.10307  0.00726 -0.02157
  3   f           x   0.21431  0.24001 -0.12956 -0.03765 -0.07026  0.13622
                  y   0.35271 -0.10102 -0.01255 -0.15238  0.35540 -0.15900
                  z  -0.13742 -0.22006 -0.16237 -0.12783 -0.01298  0.03857
  4   f           x   0.09127  0.04386  0.02430 -0.17025 -0.08188  0.17076
                  y   0.47039 -0.28487  0.00344  0.03032 -0.13899 -0.14767
                  z  -0.20907 -0.33428 -0.07278 -0.20504 -0.01974  0.05868
  5   c           x   0.15355  0.14316 -0.05359 -0.10312 -0.07599  0.15328
                  y   0.11573 -0.07588  0.00276  0.02994  0.28396  0.13207
                  z  -0.02957 -0.04813 -0.29724 -0.01161 -0.00279  0.00830
  6   c           x   0.08990  0.04169  0.02600 -0.17171 -0.08201  0.17114
                  y   0.02601 -0.11181  0.01482  0.17146  0.11634  0.28363
                  z   0.00647  0.00932 -0.34230  0.02723  0.00061 -0.00182
  7   c           x   0.15355  0.14316 -0.05359 -0.10312 -0.07599  0.15328
                  y   0.26629 -0.13503 -0.00102 -0.01706  0.19586 -0.01359
                  z  -0.10265 -0.16463 -0.20585 -0.09036 -0.00969  0.02881
  8   c           x   0.08990  0.04169  0.02600 -0.17171 -0.08201  0.17114
                  y   0.32506 -0.22930  0.00730  0.07811 -0.05865 -0.00569
                  z  -0.13869 -0.22208 -0.16078 -0.12920 -0.01310  0.03893
  9   c           x   0.02661 -0.05921  0.10516 -0.23992 -0.08798  0.18891
                  y   0.08462 -0.20563  0.02309  0.26604 -0.13686  0.29132
                  z  -0.02945 -0.04794 -0.29738 -0.01148 -0.00278  0.00827
 10   c           x   0.02661 -0.05921  0.10516 -0.23992 -0.08798  0.18891
                  y   0.23566 -0.26497  0.01929  0.21890 -0.22525  0.14520
                  z  -0.10277 -0.16482 -0.20570 -0.09049 -0.00971  0.02885
 11   h           x  -0.02190 -0.13653  0.16581 -0.29219 -0.09256  0.20252
                  y   0.28454 -0.33842  0.02553  0.29014 -0.42159  0.14726
                  z  -0.13221 -0.21176 -0.16888 -0.12222 -0.01249  0.03711
 12   h           x  -0.02190 -0.13653  0.16581 -0.29219 -0.09256  0.20252
                  y   0.01215 -0.23141  0.03238  0.37516 -0.26220  0.41077
                  z   0.00000 -0.00099 -0.33421  0.02025  0.00000  0.00000

reduced mass(g/mol)    14.691   11.972   12.417    8.915   12.532   11.387


       mode               7        8        9       10       11       12

     frequency         144.23   155.89   276.28   282.30   295.01   323.97

     symmetry            a2       b2       a1       b1       b2       a1  

        IR               NO       YES      YES      YES      YES      YES
|dDIP/dQ|   (a.u.)     0.0000   0.0009   0.0002   0.0004   0.0002   0.0011
intensity (km/mol)       0.00     1.58     0.05     0.36     0.08     2.15
intensity (  %   )       0.00     0.55     0.02     0.12     0.03     0.74
 
       RAMAN             YES      YES      YES      YES      YES      YES
 
  1   f           x  -0.00000 -0.00000  0.58584  0.28270 -0.00000 -0.26005
                  y   0.58915 -0.09345  0.00000 -0.00000 -0.19030 -0.00000
                  z   0.00000  0.00000  0.26093  0.36320 -0.00000  0.16776
  2   f           x  -0.00000  0.00000 -0.10968 -0.12908  0.00000  0.03946
                  y  -0.27940  0.43524  0.00000 -0.00000 -0.05950  0.00000
                  z   0.00000  0.00000 -0.24190 -0.44952  0.00000 -0.50747
  3   f           x  -0.00000  0.00000 -0.58584  0.28270 -0.00000  0.26005
                  y  -0.58915 -0.09345  0.00000 -0.00000 -0.19030 -0.00000
                  z   0.00000  0.00000  0.26093 -0.36320  0.00000  0.16776
  4   f           x  -0.00000  0.00000  0.10968 -0.12908 -0.00000 -0.03946
                  y   0.27940  0.43524 -0.00000 -0.00000 -0.05950 -0.00000
                  z  -0.00000  0.00000 -0.24190  0.44952 -0.00000 -0.50747
  5   c           x  -0.00000  0.00000  0.00633 -0.11896 -0.00000 -0.05194
                  y   0.19036 -0.12662 -0.00000  0.00000  0.36973  0.00000
                  z   0.00000  0.00000 -0.06780  0.11655 -0.00000  0.24135
  6   c           x  -0.00000  0.00000 -0.10056 -0.10420  0.00000  0.04955
                  y  -0.11035 -0.03726 -0.00000  0.00000  0.21471  0.00000
                  z   0.00000  0.00000 -0.00113  0.04789 -0.00000  0.12477
  7   c           x  -0.00000  0.00000 -0.00633 -0.11896 -0.00000  0.05194
                  y  -0.19036 -0.12662 -0.00000  0.00000  0.36973  0.00000
                  z   0.00000  0.00000 -0.06780 -0.11655  0.00000  0.24135
  8   c           x  -0.00000  0.00000  0.10056 -0.10420 -0.00000 -0.04955
                  y   0.11035 -0.03726 -0.00000  0.00000  0.21471  0.00000
                  z   0.00000  0.00000 -0.00113 -0.04789  0.00000  0.12477
  9   c           x  -0.00000  0.00000  0.00686 -0.01257 -0.00000  0.04063
                  y  -0.03668 -0.34243 -0.00000 -0.00000 -0.14686 -0.00000
                  z   0.00000  0.00000  0.03752  0.07875 -0.00000  0.15447
 10   c           x  -0.00000  0.00000 -0.00686 -0.01257 -0.00000 -0.04063
                  y   0.03668 -0.34243  0.00000 -0.00000 -0.14686  0.00000
                  z   0.00000  0.00000  0.03752 -0.07875  0.00000  0.15447
 11   h           x  -0.00000  0.00000 -0.04141 -0.08627 -0.00000  0.02949
                  y   0.15837 -0.40885  0.00000 -0.00000 -0.50584  0.00000
                  z   0.00000  0.00000  0.01546 -0.12145  0.00000  0.19947
 12   h           x  -0.00000  0.00000  0.04141 -0.08627 -0.00000 -0.02949
                  y  -0.15837 -0.40885 -0.00000 -0.00000 -0.50584 -0.00000
                  z   0.00000  0.00000  0.01546  0.12145 -0.00000  0.19947

reduced mass(g/mol)    17.401   11.102   18.702   17.540    6.936   16.075


       mode              13       14       15       16       17       18

     frequency         365.18   457.14   487.15   487.41   572.90   606.46

     symmetry            a2       a1       a2       b1       a2       b2  

        IR               NO       YES      NO       YES      NO       YES
|dDIP/dQ|   (a.u.)     0.0000   0.0002   0.0000   0.0001   0.0000   0.0020
intensity (km/mol)       0.00     0.06     0.00     0.02     0.00     6.77
intensity (  %   )       0.00     0.02     0.00     0.01     0.00     2.34
 
       RAMAN             YES      YES      YES      YES      YES      YES
 
  1   f           x  -0.00000 -0.10149 -0.00000 -0.28626  0.00000 -0.00000
                  y  -0.05889 -0.00000 -0.00928  0.00000  0.09789  0.04171
                  z   0.00000 -0.10840  0.00000  0.26841 -0.00000 -0.00000
  2   f           x  -0.00000 -0.46673  0.00000  0.18047  0.00000  0.00000
                  y  -0.14936  0.00000  0.09790 -0.00000 -0.02508 -0.05074
                  z  -0.00000 -0.01510  0.00000  0.06745  0.00000 -0.00000
  3   f           x  -0.00000  0.10149 -0.00000 -0.28626  0.00000 -0.00000
                  y   0.05889 -0.00000  0.00928 -0.00000 -0.09789  0.04171
                  z   0.00000 -0.10840 -0.00000 -0.26841 -0.00000  0.00000
  4   f           x   0.00000  0.46673  0.00000  0.18047 -0.00000  0.00000
                  y   0.14936 -0.00000 -0.09790  0.00000  0.02508 -0.05074
                  z  -0.00000 -0.01510 -0.00000 -0.06745 -0.00000  0.00000
  5   c           x  -0.00000 -0.06998 -0.00000 -0.15036  0.00000  0.00000
                  y   0.18387  0.00000  0.06771 -0.00000 -0.45004 -0.22478
                  z   0.00000 -0.09583  0.00000  0.24916 -0.00000  0.00000
  6   c           x  -0.00000 -0.36583  0.00000  0.13125  0.00000  0.00000
                  y   0.22972 -0.00000 -0.49357  0.00000  0.04161  0.29877
                  z   0.00000  0.05551  0.00000  0.18948 -0.00000  0.00000
  7   c           x   0.00000  0.06998 -0.00000 -0.15036  0.00000  0.00000
                  y  -0.18387  0.00000 -0.06771  0.00000  0.45004 -0.22478
                  z   0.00000 -0.09583 -0.00000 -0.24916 -0.00000 -0.00000
  8   c           x   0.00000  0.36583  0.00000  0.13125  0.00000  0.00000
                  y  -0.22972  0.00000  0.49357 -0.00000 -0.04161  0.29877
                  z  -0.00000  0.05551 -0.00000 -0.18948  0.00000 -0.00000
  9   c           x   0.00000 -0.03410  0.00000  0.18702  0.00000 -0.00000
                  y   0.39110 -0.00000  0.27241 -0.00000  0.14175 -0.00965
                  z   0.00000  0.22971  0.00000  0.19544  0.00000  0.00000
 10   c           x  -0.00000  0.03410  0.00000  0.18702 -0.00000 -0.00000
                  y  -0.39110 -0.00000 -0.27241  0.00000 -0.14175 -0.00965
                  z   0.00000  0.22971 -0.00000 -0.19544  0.00000 -0.00000
 11   h           x  -0.00000 -0.22349 -0.00000 -0.00671 -0.00000 -0.00000
                  y  -0.48444 -0.00000 -0.40979  0.00000 -0.51520 -0.59649
                  z  -0.00000  0.07078 -0.00000 -0.31282  0.00000 -0.00000
 12   h           x  -0.00000  0.22349 -0.00000 -0.00671  0.00000 -0.00000
                  y   0.48444  0.00000  0.40979 -0.00000  0.51520 -0.59649
                  z   0.00000  0.07078  0.00000  0.31282 -0.00000  0.00000

reduced mass(g/mol)     7.207   14.157    8.451   12.527    6.313    4.241


       mode              19       20       21       22       23       24

     frequency         609.52   691.44   753.74   815.81   922.85   998.96

     symmetry            b1       a1       b1       b2       a2       b1  

        IR               YES      YES      YES      YES      NO       YES
|dDIP/dQ|   (a.u.)     0.0009   0.0033   0.0030   0.0049   0.0000   0.0089
intensity (km/mol)       1.54    18.80    15.62    42.33     0.00   139.54
intensity (  %   )       0.53     6.49     5.39    14.62     0.00    48.19
 
       RAMAN             YES      YES      YES      YES      YES      YES
 
  1   f           x  -0.04304  0.11648 -0.02472  0.00000 -0.00000  0.12733
                  y  -0.00000 -0.00000 -0.00000 -0.00404  0.00397 -0.00000
                  z  -0.11290 -0.28360  0.14209 -0.00000 -0.00000 -0.11243
  2   f           x   0.08082  0.16799  0.25225 -0.00000  0.00000  0.16325
                  y   0.00000 -0.00000  0.00000  0.01774  0.00580  0.00000
                  z  -0.12696 -0.05192 -0.01315  0.00000 -0.00000  0.02403
  3   f           x  -0.04304 -0.11648 -0.02472 -0.00000  0.00000  0.12733
                  y  -0.00000  0.00000 -0.00000 -0.00404 -0.00397 -0.00000
                  z   0.11290 -0.28360 -0.14209  0.00000 -0.00000  0.11243
  4   f           x   0.08082 -0.16799  0.25225 -0.00000 -0.00000  0.16325
                  y   0.00000 -0.00000  0.00000  0.01774 -0.00580  0.00000
                  z   0.12696 -0.05192  0.01315 -0.00000 -0.00000 -0.02403
  5   c           x   0.16117  0.07340 -0.08723  0.00000  0.00000 -0.35424
                  y   0.00000  0.00000  0.00000  0.01904 -0.03664 -0.00000
                  z   0.04671 -0.08592 -0.01928  0.00000  0.00000 -0.10730
  6   c           x   0.04117  0.04046  0.06373 -0.00000 -0.00000 -0.09318
                  y  -0.00000  0.00000 -0.00000 -0.09240  0.00002 -0.00000
                  z   0.17276  0.18339 -0.15553  0.00000  0.00000 -0.03613
  7   c           x   0.16117 -0.07340 -0.08723  0.00000  0.00000 -0.35424
                  y   0.00000 -0.00000  0.00000  0.01904  0.03664  0.00000
                  z  -0.04671 -0.08592  0.01928 -0.00000 -0.00000  0.10730
  8   c           x   0.04117 -0.04046  0.06373 -0.00000  0.00000 -0.09318
                  y  -0.00000  0.00000 -0.00000 -0.09240 -0.00002 -0.00000
                  z  -0.17276  0.18339  0.15553 -0.00000  0.00000  0.03613
  9   c           x  -0.22059  0.06346 -0.31894  0.00000 -0.00000  0.01557
                  y   0.00000 -0.00000  0.00000  0.10975  0.09440  0.00000
                  z   0.13516  0.40084 -0.30684  0.00000  0.00000  0.18090
 10   c           x  -0.22059 -0.06346 -0.31894  0.00000  0.00000  0.01557
                  y   0.00000  0.00000  0.00000  0.10975 -0.09440 -0.00000
                  z  -0.13516  0.40084  0.30684 -0.00000  0.00000 -0.18090
 11   h           x  -0.49454 -0.11544 -0.20791  0.00000  0.00000 -0.33095
                  y   0.00000 -0.00000 -0.00000 -0.69190  0.69978 -0.00000
                  z  -0.30257  0.38603  0.37425 -0.00000  0.00000 -0.39297
 12   h           x  -0.49454  0.11544 -0.20791  0.00000 -0.00000 -0.33095
                  y   0.00000 -0.00000 -0.00000 -0.69190 -0.69978 -0.00000
                  z   0.30257  0.38603 -0.37425  0.00000  0.00000  0.39297

reduced mass(g/mol)     5.135   10.184    9.160    1.481    1.235    6.986


       mode              25       26       27       28       29       30

     frequency        1067.22  1188.17  1262.73  1284.14  1347.50  1357.08

     symmetry            a1       a1       b1       b1       a1       a1  

        IR               YES      YES      YES      YES      YES      YES
|dDIP/dQ|   (a.u.)     0.0061   0.0038   0.0058   0.0041   0.0006   0.0038
intensity (km/mol)      66.12    25.70    60.27    29.95     0.61    25.82
intensity (  %   )      22.83     8.87    20.81    10.34     0.21     8.92
 
       RAMAN             YES      YES      YES      YES      YES      YES
 
  1   f           x  -0.03473 -0.02803  0.02828  0.05726 -0.00696 -0.02133
                  y   0.00000 -0.00000 -0.00000 -0.00000  0.00000  0.00000
                  z   0.07257  0.05154 -0.05781 -0.09660  0.00445  0.05296
  2   f           x   0.07751  0.06330  0.03100 -0.11320  0.02620 -0.11058
                  y   0.00000  0.00000 -0.00000 -0.00000  0.00000  0.00000
                  z   0.01263  0.00372 -0.00844  0.00470 -0.00097  0.02297
  3   f           x   0.03473  0.02803  0.02828  0.05726  0.00696  0.02133
                  y  -0.00000 -0.00000 -0.00000 -0.00000 -0.00000 -0.00000
                  z   0.07257  0.05154  0.05781  0.09660  0.00445  0.05296
  4   f           x  -0.07751 -0.06330  0.03100 -0.11320 -0.02620  0.11058
                  y   0.00000  0.00000  0.00000 -0.00000  0.00000 -0.00000
                  z   0.01263  0.00372  0.00844 -0.00470 -0.00097  0.02297
  5   c           x  -0.04713 -0.03093 -0.05484 -0.16425 -0.33342 -0.02563
                  y  -0.00000  0.00000  0.00000  0.00000  0.00000 -0.00000
                  z  -0.10273 -0.11311  0.10989  0.21625 -0.21622 -0.11173
  6   c           x  -0.08458 -0.10150 -0.04951  0.28103 -0.04096  0.24948
                  y   0.00000 -0.00000 -0.00000  0.00000 -0.00000 -0.00000
                  z  -0.08792 -0.04426  0.11002  0.02918  0.43854 -0.14766
  7   c           x   0.04713  0.03093 -0.05484 -0.16425  0.33342  0.02563
                  y   0.00000 -0.00000  0.00000  0.00000  0.00000  0.00000
                  z  -0.10273 -0.11311 -0.10989 -0.21625 -0.21622 -0.11173
  8   c           x   0.08458  0.10150 -0.04951  0.28103  0.04096 -0.24948
                  y  -0.00000 -0.00000 -0.00000  0.00000  0.00000 -0.00000
                  z  -0.08792 -0.04426 -0.11002 -0.02918  0.43854 -0.14766
  9   c           x   0.07598 -0.08494 -0.03683  0.01532  0.25752  0.25005
                  y   0.00000  0.00000  0.00000 -0.00000  0.00000  0.00000
                  z   0.07621  0.04173 -0.01737 -0.15226 -0.22864  0.09950
 10   c           x  -0.07598  0.08494 -0.03683  0.01532 -0.25752 -0.25005
                  y   0.00000  0.00000 -0.00000 -0.00000  0.00000  0.00000
                  z   0.07621  0.04173  0.01737  0.15226 -0.22864  0.09950
 11   h           x  -0.62411  0.58689  0.56497 -0.51961  0.16924  0.29912
                  y   0.00000 -0.00000  0.00000  0.00000 -0.00000  0.00000
                  z  -0.24208  0.33634  0.37992 -0.16602  0.00966  0.47424
 12   h           x   0.62411 -0.58689  0.56497 -0.51961 -0.16924 -0.29912
                  y  -0.00000  0.00000  0.00000  0.00000 -0.00000 -0.00000
                  z  -0.24208  0.33634 -0.37992  0.16602  0.00966  0.47424

reduced mass(g/mol)     2.326    2.046    1.883    5.819   11.389    5.317


       mode              31       32       33       34       35       36

     frequency        1555.37  1555.48  1673.21  1673.97  3244.40  3257.74

     symmetry            a1       b1       b1       a1       b1       a1  

        IR               YES      YES      YES      YES      YES      YES
|dDIP/dQ|   (a.u.)     0.0099   0.0128   0.0031   0.0020   0.0004   0.0007
intensity (km/mol)     173.19   289.58    17.51     7.18     0.29     0.90
intensity (  %   )      59.81   100.00     6.05     2.48     0.10     0.31
 
       RAMAN             YES      YES      YES      YES      YES      YES
 
  1   f           x  -0.07734 -0.00358  0.00949  0.02125  0.00003 -0.00001
                  y  -0.00000  0.00000 -0.00000 -0.00000 -0.00000  0.00000
                  z   0.11455  0.03348 -0.03932 -0.00722 -0.00006 -0.00002
  2   f           x  -0.05800 -0.06264  0.00654 -0.03636  0.00028  0.00036
                  y   0.00000  0.00000 -0.00000 -0.00000 -0.00000 -0.00000
                  z  -0.02138  0.00020  0.01796  0.00147 -0.00009 -0.00015
  3   f           x   0.07734 -0.00358  0.00949 -0.02125  0.00003  0.00001
                  y   0.00000 -0.00000  0.00000 -0.00000 -0.00000  0.00000
                  z   0.11455 -0.03348  0.03932 -0.00722  0.00006 -0.00002
  4   f           x   0.05800 -0.06264  0.00654  0.03636  0.00028 -0.00036
                  y   0.00000  0.00000  0.00000  0.00000  0.00000 -0.00000
                  z  -0.02138 -0.00020 -0.01796  0.00147  0.00009 -0.00015
  5   c           x   0.34119 -0.06657  0.08255 -0.38088  0.00022  0.00012
                  y   0.00000 -0.00000  0.00000  0.00000  0.00000 -0.00000
                  z  -0.33147 -0.16221  0.36245 -0.06189  0.00018  0.00027
  6   c           x   0.17184  0.26067 -0.02555  0.26695 -0.00193 -0.00239
                  y  -0.00000 -0.00000  0.00000 -0.00000 -0.00000  0.00000
                  z   0.21679 -0.01565 -0.46219 -0.02134  0.00190  0.00274
  7   c           x  -0.34119 -0.06657  0.08255  0.38088  0.00022 -0.00012
                  y  -0.00000  0.00000  0.00000 -0.00000 -0.00000  0.00000
                  z  -0.33147  0.16221 -0.36245 -0.06189 -0.00018  0.00027
  8   c           x  -0.17184  0.26067 -0.02555 -0.26695 -0.00193  0.00239
                  y  -0.00000  0.00000  0.00000  0.00000 -0.00000  0.00000
                  z   0.21679  0.01565  0.46219 -0.02134 -0.00190  0.00274
  9   c           x  -0.16857 -0.13558 -0.10453 -0.34151 -0.02888 -0.03410
                  y   0.00000 -0.00000 -0.00000 -0.00000  0.00000  0.00000
                  z  -0.00915  0.16638  0.24753  0.11433 -0.05355 -0.05344
 10   c           x   0.16857 -0.13558 -0.10453  0.34151 -0.02888  0.03410
                  y   0.00000  0.00000  0.00000 -0.00000  0.00000 -0.00000
                  z  -0.00915 -0.16638 -0.24753  0.11433  0.05355 -0.05344
 11   h           x  -0.25905  0.55083  0.26421 -0.28109  0.35864 -0.36214
                  y  -0.00000 -0.00000  0.00000 -0.00000 -0.00000  0.00000
                  z  -0.28046  0.21570 -0.05946 -0.26239 -0.60636  0.60401
 12   h           x   0.25905  0.55083  0.26421  0.28109  0.35864  0.36214
                  y  -0.00000 -0.00000 -0.00000 -0.00000 -0.00000 -0.00000
                  z  -0.28046 -0.21570  0.05946 -0.26239  0.60636  0.60401

reduced mass(g/mol)     9.124    4.381   10.425    8.783    1.090    1.097
 

 <geterg> : there is no data group $energy 


         **************************************************************
         *                                                            *
         *  zero point VIBRATIONAL energy  :      0.0676917  Hartree  *
         *                                                            *
         **************************************************************




 time elapsed for vibrational analysis     0.07 sec


    ------------------------------------------------------------------------
         total  cpu-time :   0.14 seconds
         total wall-time :   0.14 seconds
    ------------------------------------------------------------------------


   ****  force : all done  ****


    2016-06-28 23:25:20.454 

