 operating system is UNIX !
 hostname is         pauli07

 force (pauli07) : TURBOMOLE V7.0( 19819 ) 16 Jun 2015 at 11:29:46
 Copyright (C) 2015 TURBOMOLE GmbH, Karlsruhe


    2017-12-07 16:22:03.255 



                             T U R B O M O L E   

                          a o f o r c e - program

                        using direct algorithms for

                       SCF level calculations of
                         * harmonic force constants
                         * hyperpolarizabilities
                         * IR and RAMAN intensities

                       DFT level calculations of
                         * harmonic force constants
                         * IR intensities
                                                   
       Stephan Boecker, Peter Deglmann, Filipp Furche and Marco Haeser
                          Quantum Chemistry Group
                          Universitaet  Karlsruhe
                                   Germany

 
 
 
 
     References :
 
       RI-J implementation:
         Peter Deglmann, Klaus May, Filipp Furche, Reinhart Ahlrichs
                 Chem. Phys. Lett. 384:103 (2004)
 
       Efficiency, technical details:
         Peter Deglmann, Filipp Furche, Reinhart Ahlrichs
                 Chem. Phys. Lett. 362:511 (2002)
 
       Search of lowest eigenvalues by iterative diagonalization:
         Peter Deglmann, Filipp Furche
                 J. Chem. Phys. 117:9535 (2002)
 
 


              +--------------------------------------------------+
              | Atomic coordinate, charge and isotop information |
              +--------------------------------------------------+

                    atomic coordinates            atom    charge  isotop
          2.58910302    1.00158295   -4.35878156    f      9.000     0
          5.10991796   -0.33872136    0.10521338    f      9.000     0
         -2.65785416   -0.56867299   -4.34078149    f      9.000     0
         -5.09606205   -0.05724971    0.01318271    f      9.000     0
          1.40249386   -0.19746244   -2.39237878    c      6.000     0
          2.59082761   -0.13045683    0.03287441    c      6.000     0
         -1.27714418   -0.12166002   -2.26761822    c      6.000     0
         -2.58560068    0.05034095    0.09594118    c      6.000     0
          1.29793819   -0.02507750    2.38543153    c      6.000     0
         -1.35546482    0.19443309    2.45739414    c      6.000     0
         -2.41633834    0.45544087    4.17671770    h      1.000     0
          2.39818359   -0.26249700    4.09279279    h      1.000     0
 
       center of nuclear mass  :   -0.00122475   -0.01242630   -1.00581955
       center of nuclear charge:   -0.00099881   -0.01153923   -0.90663684

              +--------------------------------------------------+
              |               basis set information              |
              +--------------------------------------------------+

              we will work with the 1s 3p 5d 7f 9g ... basis set
              ...i.e. with spherical basis functions...

   type   atoms  prim   cont   basis
   ---------------------------------------------------------------------------
    f        4     55     40   def2-TZVPPD   [6s4p3d1f|12s7p3d1f]
    c        6     52     37   def2-TZVPPD   [6s3p3d1f|12s6p3d1f]
    h        2     19     17   def2-TZVPPD   [3s3p1d|5s3p1d]
   ---------------------------------------------------------------------------
   total:   12    570    416
   ---------------------------------------------------------------------------

   total number of primitive shells          :   54
   total number of contracted shells         :  148
   total number of cartesian basis functions :  478
   total number of SCF-basis functions       :  416


 symmetry group of the molecule :   c1 

 the group has the following generators :
   c1(z)

    1 symmetry operations found

 there are 1 real representations :   a   

 maximum number of shells which are related by symmetry :  1


 determining totally symmetric integral contributions 
    - equivalent to irreducible tensor elements - 
 which can be formed within each triple of representations :

             representation triple      contributions

              a     a     a               1

 reading cartesian hessian from $hessian,
 file=<hessian>


 actual cartesian coordinates & gradients will be read from $grad 

            ----------------------------
            actual cartesian coordinates
            ----------------------------
    1 f       2.58910301953587      1.00158295102895     -4.35878155543008
    2 f       5.10991796309786     -0.33872136442659      0.10521338264583
    3 f      -2.65785415516026     -0.56867299274855     -4.34078149009693
    4 f      -5.09606204708777     -0.05724970694171      0.01318271009055
    5 c       1.40249386100901     -0.19746244463197     -2.39237877686161
    6 c       2.59082760956186     -0.13045682831795      0.03287441195727
    7 c      -1.27714418060931     -0.12166002177688     -2.26761822286989
    8 c      -2.58560067847770      0.05034095025862      0.09594118297090
    9 c       1.29793818678229     -0.02507750046103      2.38543152598776
   10 c      -1.35546482214913      0.19443309485799      2.45739414402830
   11 h      -2.41633834230317      0.45544086580719      4.17671769900851
   12 h       2.39818358580050     -0.26249700264808      4.09279279296945

              --------------------------
              actual cartesian gradients
              --------------------------
    1 f       0.00000134850790      0.00000067923430     -0.00000069100958
    2 f       0.00000047333332     -0.00000006769214     -0.00000137919627
    3 f       0.00000054853376      0.00000036844881      0.00000118049278
    4 f       0.00000091296252      0.00000022265135      0.00000004777711
    5 c      -0.00000196164155     -0.00000005360283     -0.00000055319081
    6 c       0.00000096405939     -0.00000007697549      0.00000083533858
    7 c       0.00000134311452     -0.00000131967650     -0.00000006883402
    8 c       0.00000019420849     -0.00000033010010      0.00000155253304
    9 c       0.00000124786867      0.00000044357530      0.00000287561771
   10 c      -0.00000878134957      0.00000062008010     -0.00000547223212
   11 h       0.00000341402422     -0.00000012196502      0.00000208961688
   12 h       0.00000029637409     -0.00000036397879     -0.00000041690527

 dipole moment read from <control>

                -----------------------
                permanent dipole moment
                -----------------------
             x              y             z
         -0.5577229     -0.0764661      3.2970157      (debyes)

 dipole derivatives read from <dipgrad>

        ----------------------------------------------------
        cartesian dipole derivative matrix (debyes/angstrom)
        ----------------------------------------------------

  atom       1 f                              2 f 
            x          y          z          x          y          z
 
  x     -2.108288  -0.497189   2.350791  -6.116313   0.178463  -0.380535
  y     -2.304163  -1.200118   3.333169   0.635105  -0.345367  -0.568819
  z      2.453146   0.841282  -4.532933  -0.429864  -0.040028  -0.943081

  atom       3 f                              4 f 
            x          y          z          x          y          z
 
  x     -2.497340  -0.219481  -2.341041  -6.110027  -0.109102   0.124323
  y     -0.525054  -0.391724  -0.973964   0.000561  -0.324998   0.337541
  z     -2.602238  -0.418010  -3.786510  -0.253955  -0.033978  -1.088506

  atom       5 c                              6 c 
            x          y          z          x          y          z
 
  x     -1.466921   0.797044  -6.193939   7.652536  -0.418027  -0.325435
  y      2.944643   0.888875  -4.010877  -0.767195   0.296124   1.045905
  z     -4.344107  -1.721807   2.394748   3.609068   0.723448   3.646855

  atom       7 c                              8 c 
            x          y          z          x          y          z
 
  x      3.652233   0.024467   7.291739   7.188241   0.137267   0.108760
  y      0.461805   0.253453   1.098024  -0.398911   0.554258  -0.388065
  z      1.958736   0.981071   2.186443   2.294765  -0.222491   6.156559

  atom       9 c                             10 c 
            x          y          z          x          y          z
 
  x      3.193817   0.111630   1.372374  -3.862916  -0.143221  -1.913910
  y      0.072409  -0.354020   0.180123  -0.047773  -0.871690   0.120791
  z     -0.156880  -0.249332  -1.303684  -2.336939   0.195596  -2.957344

  atom      11 h                             12 h 
            x          y          z          x          y          z
 
  x      0.212347   0.067818   0.045227   0.262789   0.070282  -0.139141
  y      0.199804   0.827690  -0.190236  -0.270993   0.666058   0.015299
  z      0.073609  -0.071202   0.149970  -0.268591   0.015915   0.079310
 

             -----------------------------------
             rotational and vibrational analysis
             -----------------------------------


            ==============================================================
            ATOMIC WEIGHTS (average over the natural occurance of isotops)
            ==============================================================
            ('*' denotes special isotop !)
              1     f                18.99840
              2     f                18.99840
              3     f                18.99840
              4     f                18.99840
              5     c                12.01115
              6     c                12.01115
              7     c                12.01115
              8     c                12.01115
              9     c                12.01115
             10     c                12.01115
             11     h                 1.00797
             12     h                 1.00797

          -------------------------------------------------
          CARTESIAN FORCE CONSTANT MATRIX (hartree/bohr**2)
         (translational & rotational space projected out)
          -------------------------------------------------

   ATOM              1 f                           2 f 
                  dx        dy        dz        dx        dy        dz
   1 f     dx  0.1076608
           dy  0.0547919 0.0601670
           dz -0.0990052-0.0923173 0.2128110
   2 f     dx  0.0092011 0.0034017-0.0040434 0.4010938
           dy  0.0015502 0.0015267-0.0032972-0.0270832 0.0164001
           dz -0.0009893-0.0023882 0.0045485 0.0049393 0.0045817 0.0670025
   3 f     dx  0.0031487-0.0015448 0.0037172-0.0045613 0.0003685-0.0023835
           dy  0.0017179-0.0056151-0.0001265-0.0008864-0.0022601-0.0005050
           dz -0.0023415-0.0076712 0.0107069-0.0046993 0.0010829-0.0013845
   4 f     dx -0.0034493-0.0048518 0.0046766-0.0029045 0.0004367 0.0001987
           dy  0.0003129-0.0013150-0.0007343 0.0028776-0.0012277-0.0001042
           dz  0.0011155 0.0000014 0.0003578-0.0010066 0.0009213 0.0013619
   5 c     dx -0.0891021-0.0421371 0.0630018-0.0612783 0.0053481-0.0304523
           dy -0.0404865-0.0661275 0.0653877-0.0051595 0.0032755 0.0027404
           dz  0.0675983 0.0877960-0.1655711-0.0070080 0.0045446 0.0038486
   6 c     dx  0.0031348 0.0008135 0.0205343-0.3234675 0.0239458-0.0045936
           dy  0.0032990-0.0016287 0.0214335 0.0233995-0.0309229-0.0024226
           dz  0.0001956 0.0075638-0.0448440 0.0133030-0.0142128-0.0766578
   7 c     dx -0.0295284-0.0219204 0.0218220 0.0173716-0.0051724-0.0080593
           dy -0.0163603 0.0122489 0.0021067 0.0035677 0.0061458 0.0029640
           dz  0.0381752 0.0105074-0.0172944-0.0059921 0.0051095-0.0019361
   8 c     dx -0.0008231 0.0046472-0.0053674 0.0050907 0.0009918 0.0002784
           dy -0.0039296 0.0008583 0.0053608-0.0050618 0.0016670-0.0007642
           dz -0.0066548-0.0149684 0.0028097 0.0129403-0.0050975-0.0103728
   9 c     dx  0.0000976 0.0084085-0.0095134-0.0276970-0.0093857 0.0338428
           dy -0.0008828 0.0001436 0.0029391 0.0079528 0.0034138-0.0049609
           dz -0.0003552 0.0065661-0.0034885-0.0072184 0.0045454 0.0103642
  10 c     dx -0.0007258-0.0017272 0.0031050-0.0126327 0.0091535 0.0066410
           dy  0.0004409-0.0008909-0.0000398-0.0005088 0.0023631 0.0003512
           dz  0.0024915 0.0056813 0.0003251 0.0003493 0.0011893-0.0000561
  11 h     dx  0.0001566 0.0000851 0.0000899-0.0017024 0.0001781 0.0016364
           dy -0.0000236 0.0016221-0.0002807-0.0001223 0.0007222 0.0002927
           dz  0.0000726 0.0001408 0.0000450-0.0006546 0.0002500 0.0005478
  12 h     dx  0.0002290 0.0000334 0.0009825 0.0014865-0.0003313-0.0010585
           dy -0.0004298-0.0009895-0.0004320-0.0023773-0.0011036 0.0002152
           dz -0.0003026-0.0009116-0.0004060-0.0009095 0.0003828 0.0027338

   ATOM              3 f                           4 f 
                  dx        dy        dz        dx        dy        dz
   3 f     dx  0.1599246
           dy  0.0268263 0.0212979
           dz  0.1504392 0.0512418 0.2922961
   4 f     dx  0.0097121 0.0026791 0.0036664 0.4216353
           dy  0.0033012 0.0015079 0.0046900 0.0144397 0.0149650
           dz  0.0034608-0.0001770 0.0033309 0.0124867 0.0036693 0.0696759
   5 c     dx -0.0331449-0.0178407-0.0293856 0.0032562-0.0003793 0.0080657
           dy -0.0001141 0.0150059 0.0123961 0.0082093 0.0048740-0.0021382
           dz -0.0479173-0.0032334-0.0229991 0.0022104 0.0014232-0.0022512
   6 c     dx -0.0020570 0.0007602 0.0085620 0.0077431-0.0024573 0.0007583
           dy -0.0040641 0.0052388-0.0038203-0.0006845 0.0012221-0.0006114
           dz  0.0106852 0.0155676 0.0211256-0.0050173-0.0010709-0.0093321
   7 c     dx -0.1333558-0.0098340-0.0994864-0.0506796 0.0017403 0.0249882
           dy -0.0227965-0.0320455-0.0410107-0.0077725 0.0013968 0.0044021
           dz -0.1214942-0.0593944-0.2539077-0.0089204-0.0017803 0.0072458
   8 c     dx -0.0009531-0.0061351-0.0350367-0.3457561-0.0151721-0.0080370
           dy -0.0027601-0.0047722-0.0178959-0.0095841-0.0297225-0.0049337
           dz  0.0079672 0.0139953-0.0293261-0.0038458-0.0051297-0.0835799
   9 c     dx  0.0018062 0.0056925 0.0118786 0.0038713 0.0032034-0.0064168
           dy  0.0018244 0.0000223 0.0020499-0.0034881 0.0029507-0.0015016
           dz -0.0009435-0.0052761-0.0038430-0.0017235-0.0055634-0.0015492
  10 c     dx -0.0008765-0.0025465-0.0016641-0.0439016-0.0076129-0.0355255
           dy  0.0002218-0.0001088 0.0002827-0.0005965 0.0079812-0.0002155
           dz -0.0037087-0.0120131-0.0141363-0.0045555 0.0040270 0.0114370
  11 h     dx  0.0002638-0.0002773-0.0017500 0.0017168-0.0000987 0.0018336
           dy -0.0003545 0.0024154 0.0007529 0.0010698-0.0026319 0.0001239
           dz  0.0004854 0.0001169-0.0013849 0.0002744 0.0003622 0.0025788
  12 h     dx  0.0000931-0.0001560-0.0001827-0.0012437-0.0001547-0.0017230
           dy -0.0009082-0.0006865-0.0020981 0.0001429-0.0000006 0.0004594
           dz -0.0003079-0.0001963-0.0004778 0.0005492 0.0002111 0.0007244

   ATOM              5 c                           6 c 
                  dx        dy        dz        dx        dy        dz
   5 c     dx  0.6246813
           dy  0.0361484 0.1214196
           dz  0.0720115-0.0787439 0.5354992
   6 c     dx -0.1031457-0.0033260-0.0825684 0.5962523
           dy -0.0264824-0.0365429-0.0159293-0.0289138 0.1084030
           dz -0.1582912 0.0100390-0.2863789-0.0202722 0.0156845 0.7509097
   7 c     dx -0.3571657 0.0208494-0.0261463-0.0166871 0.0198496 0.0697888
           dy  0.0415171-0.0510549 0.0134878-0.0073204-0.0093166-0.0370939
           dz  0.0657113-0.0114062-0.0446696-0.0369697-0.0070397-0.0458917
   8 c     dx -0.0003981-0.0051964 0.0353033-0.0147540-0.0035020-0.0063275
           dy  0.0025818 0.0001810-0.0066869 0.0055623-0.0037392 0.0068026
           dz -0.0710374 0.0263907-0.0278901-0.0046400 0.0087333 0.0980909
   9 c     dx -0.0353960-0.0059716-0.0385858-0.1477983 0.0260592 0.1553789
           dy  0.0013985 0.0064006-0.0054111 0.0069782-0.0433416 0.0044399
           dz  0.0523453-0.0161085-0.0026020 0.0937819-0.0130114-0.3363146
  10 c     dx  0.0526288-0.0050327 0.0223998-0.0056014-0.0081205-0.0705749
           dy -0.0024382 0.0000660 0.0009333 0.0017630 0.0051080-0.0025575
           dz  0.0221612-0.0085273 0.0137742 0.0424237-0.0056513-0.0483429
  11 h     dx  0.0015128-0.0003196 0.0009322-0.0034134 0.0009377-0.0049596
           dy  0.0009143-0.0030814-0.0015966 0.0013498 0.0033330 0.0003109
           dz  0.0016781-0.0004407 0.0007241-0.0012987-0.0007148-0.0016278
  12 h     dx -0.0024484 0.0003993 0.0017702 0.0097943-0.0017777 0.0160913
           dy  0.0013694 0.0055840 0.0034164 0.0008447 0.0021871-0.0054731
           dz  0.0041917 0.0004111-0.0014840-0.0157175 0.0033496-0.0207365

   ATOM              7 c                           8 c 
                  dx        dy        dz        dx        dy        dz
   7 c     dx  0.6973524
           dy -0.0001941 0.0950401
           dz -0.0668944 0.0802187 0.6468280
   8 c     dx -0.1346213 0.0109911 0.1155269 0.6361344
           dy -0.0041896-0.0331976-0.0104852 0.0176859 0.1066958
           dz  0.1623768-0.0546923-0.3119022 0.0019954 0.0459635 0.7598213
   9 c     dx  0.0567095-0.0148504-0.0369107-0.0384927 0.0007455 0.0620759
           dy -0.0023686-0.0010637-0.0033789-0.0008695 0.0018612 0.0043844
           dz -0.0350625 0.0139151 0.0228377-0.0346116 0.0071799-0.0512865
  10 c     dx -0.0451652 0.0131703 0.0584747-0.1115584-0.0006776-0.1455781
           dy  0.0025236 0.0119251-0.0046824-0.0049359-0.0434913-0.0161717
           dz -0.0363963 0.0157148-0.0028646-0.0820795-0.0222219-0.3242276
  11 h     dx -0.0042854 0.0002896-0.0005147 0.0105385-0.0019801-0.0183906
           dy  0.0008442-0.0000255-0.0019845-0.0020104 0.0007349 0.0028200
           dz -0.0053377-0.0008217 0.0004204 0.0170081-0.0026423-0.0198818
  12 h     dx  0.0000548-0.0002416-0.0001919-0.0044068 0.0016073 0.0027913
           dy -0.0021278-0.0000528 0.0043160 0.0035054 0.0029245-0.0062277
           dz -0.0015928 0.0008094 0.0011344 0.0013474 0.0003231-0.0022549

   ATOM              9 c                          10 c 
                  dx        dy        dz        dx        dy        dz
   9 c     dx  0.7299276
           dy -0.0629704 0.1000437
           dz -0.0126237-0.0232190 0.6860211
  10 c     dx -0.3951999 0.0278539 0.0506036 0.7059966
           dy  0.0256940-0.0378770-0.0015555-0.0476165 0.0679201
           dz -0.0237818-0.0024224-0.0672034-0.0256673 0.0577754 0.6964103
  11 h     dx -0.0104499 0.0025865 0.0275468-0.1333654 0.0230638 0.1349650
           dy -0.0007870 0.0004218-0.0000038 0.0239251-0.0192441-0.0369767
           dz -0.0051395 0.0003193 0.0075598 0.1333633-0.0342255-0.2733409
  12 h     dx -0.1373783 0.0219850-0.1317392-0.0095984 0.0023889-0.0262015
           dy  0.0241619-0.0329755 0.0325312-0.0007689 0.0062484 0.0034249
           dz -0.1302043 0.0267613-0.2604955 0.0044226 0.0001052 0.0082252

   ATOM             11 h                          12 h 
                  dx        dy        dz        dx        dy        dz
  11 h     dx  0.1379257
           dy -0.0240975 0.0183222
           dz -0.1409567 0.0371652 0.2840150
  12 h     dx  0.0011024-0.0007078 0.0005053 0.1423154
           dy -0.0003676-0.0025887 0.0004905-0.0230447 0.0214530
           dz -0.0004323-0.0006231 0.0003444 0.1389562-0.0306226 0.2726926
 

   *** projected hessian written onto $hessian (projected), file=<hessian> ***

 dipole moment in principle axis system (a.u.) :
    -0.2224187802    -0.0723537611     1.2949549225
 norm :   1.31590783561246     

 rotational constants b for rotations around axis of inertia
 and optical intensities for (1 <-- 0) transition

   b   :     0.0667894074     0.0252505472     0.0391536460   (cm**(-1))
   b   :        2002.2961         756.9924        1173.7968     (MHz)
  int. :     0.0494701138     0.0052350667     1.6769082513     (a.u.)

   x   :     0.9996612979    -0.0258552007    -0.0029661592
   y   :     0.0257612425     0.9992689855    -0.0282462908
   z   :     0.0036943044     0.0281603117     0.9995965931

   ***  normal modes written onto $vibrational normal modes, file=<control>  ***

 keyword $vibrational reduced masses missing in file <control>


   ***  vibrational spectroscopic data written onto$vibrational spectrum   
        file=<control>  ***

          ---------------------------------------------------
          NORMAL MODES and VIBRATIONAL FREQUENCIES (cm**(-1))
          ---------------------------------------------------

 imaginary wave numbers indicate a negative curvature of the energy surface.
 zero frequency modes have no physical meaning except being generators of
 translations and rotations. each vibrational normal mode - given in terms of
 cartesian displacement vectors of all atoms - has been normalized to unity.
 to obtain mass-weigthed normal coordinates in a.u. divide the tabulated
 modes by sqrt(reduced mass * 1822.88853).
 band intensities or cross sections refer to independent non-degenerate normal
 modes, that is, the intensities of degenerate modes have yet to be added.
 dDIP/dQ is the normal mode derivative of the dipole moment.


       mode               1        2        3        4        5        6

     frequency           0.00     0.00     0.00     0.00     0.00     0.00

     symmetry                                                             

        IR                -        -        -        -        -        - 
|dDIP/dQ|   (a.u.)     0.0000   0.0000   0.0000   0.0000   0.0000   0.0000
intensity (km/mol)       0.00     0.00     0.00     0.00     0.00     0.00
intensity (  %   )       0.00     0.00     0.00     0.00     0.00     0.00
 
       RAMAN              -        -        -        -        -        - 
 
  1   f           x  -0.14243 -0.09304  0.15418 -0.12372  0.16675  0.20993
                  y   0.02457 -0.06570  0.03796  0.54048  0.15101  0.01849
                  z  -0.31947  0.04161 -0.04743  0.11060  0.02492  0.07992
  2   f           x   0.06549  0.12138  0.12705 -0.04194  0.19919  0.10167
                  y  -0.02200 -0.03060  0.18081  0.21359  0.23793 -0.39591
                  z  -0.45087 -0.06894  0.01079 -0.03372  0.03269  0.01663
  3   f           x  -0.14287 -0.09422  0.13757 -0.07968  0.27020  0.12414
                  y   0.02866 -0.05869  0.09398  0.39233 -0.19576  0.30355
                  z  -0.08946  0.30920 -0.00309  0.02298 -0.06894 -0.05881
  4   f           x   0.06141  0.11730  0.13029 -0.05071  0.18176  0.11775
                  y  -0.01277 -0.01804  0.28497 -0.06326 -0.43430  0.16645
                  z   0.02980  0.42288 -0.02960  0.09272 -0.09045 -0.04629
  5   c           x  -0.05134  0.00062  0.13581 -0.07070  0.22122  0.12905
                  y   0.00592 -0.04724  0.12511  0.33233  0.03763 -0.03877
                  z  -0.27587  0.10938 -0.00537  0.01568 -0.01134 -0.00381
  6   c           x   0.06227  0.11815  0.12946 -0.04847  0.18635  0.11360
                  y  -0.01923 -0.02793  0.20464  0.14968  0.07289 -0.25403
                  z  -0.33084  0.05126 -0.00445  0.00984  0.00477  0.00971
  7   c           x  -0.04543  0.00676  0.13625 -0.07157  0.21465  0.13220
                  y   0.00686 -0.04266  0.15811  0.24638 -0.14152  0.09964
                  z  -0.14965  0.23850 -0.01604  0.04905 -0.04364 -0.02021
  8   c           x   0.06537  0.12144  0.13118 -0.05290  0.17362  0.12296
                  y  -0.01564 -0.02061  0.26163 -0.00051 -0.27002  0.02439
                  z  -0.08667  0.30038 -0.02638  0.07735 -0.05701 -0.01984
  9   c           x   0.17251  0.23222  0.12372 -0.02804  0.14985  0.10082
                  y  -0.04163 -0.00600  0.30758 -0.09581 -0.05438 -0.32945
                  z  -0.26926  0.11296 -0.01221  0.03206 -0.00959  0.00606
 10   c           x   0.17605  0.23599  0.12583 -0.03346  0.13445  0.11223
                  y  -0.04019 -0.00191  0.33829 -0.17632 -0.23086 -0.18919
                  z  -0.14283  0.23957 -0.02827  0.07796 -0.03900 -0.00122
 11   h           x   0.25677  0.31959  0.12358 -0.02367  0.09563  0.11292
                  y  -0.05647  0.01427  0.41475 -0.35897 -0.33154 -0.23798
                  z  -0.09056  0.28870 -0.04126  0.11173 -0.04767  0.00662
 12   h           x   0.25225  0.31459  0.11625 -0.00445  0.14408  0.07442
                  y  -0.05955  0.00725  0.36078 -0.21703 -0.01215 -0.49537
                  z  -0.32314  0.06173  0.00000  0.00000  0.00000  0.00000

reduced mass(g/mol)    11.823   11.184    9.771   13.733   13.901   11.092


       mode               7        8        9       10       11       12

     frequency          79.01   105.74   177.98   243.94   265.75   291.25

     symmetry            a        a        a        a        a        a   

        IR               YES      YES      YES      YES      YES      YES
|dDIP/dQ|   (a.u.)     0.0006   0.0009   0.0021   0.0003   0.0012   0.0013
intensity (km/mol)       0.75     1.29     7.86     0.16     2.59     3.07
intensity (  %   )       0.17     0.30     1.81     0.04     0.59     0.71
 
       RAMAN             YES      YES      YES      YES      YES      YES
 
  1   f           x  -0.05494 -0.00816 -0.26698  0.43980 -0.23630  0.07367
                  y   0.53882 -0.00604  0.22479  0.08191 -0.04950  0.01000
                  z   0.08986  0.03571  0.03074  0.45733  0.12982  0.02911
  2   f           x  -0.02479  0.02870  0.04664 -0.08043  0.05709 -0.05130
                  y  -0.40840  0.33548  0.07151  0.16156 -0.00826 -0.10380
                  z   0.00494 -0.04543  0.10529 -0.33642 -0.17916 -0.00418
  3   f           x   0.01381  0.00017  0.03581 -0.23178  0.47283 -0.00524
                  y  -0.51933 -0.25024  0.20835  0.00768  0.01271  0.00161
                  z   0.05605  0.00191  0.01395 -0.05692 -0.44568 -0.07664
  4   f           x   0.01965 -0.01871  0.03341  0.00146 -0.15915 -0.00538
                  y   0.12365  0.48032  0.12970 -0.05082  0.02307  0.11393
                  z  -0.01299 -0.02784 -0.08640  0.09003  0.35069  0.08918
  5   c           x   0.01012 -0.01210  0.10152 -0.07197 -0.11655 -0.01047
                  y   0.22557 -0.00534 -0.46726 -0.19894  0.06455 -0.01410
                  z  -0.03780  0.01979 -0.08483 -0.01125  0.20672 -0.02163
  6   c           x  -0.00124  0.00528  0.02284 -0.10785  0.04967 -0.02649
                  y  -0.03752 -0.02047 -0.17856 -0.25515 -0.06299  0.12333
                  z  -0.03319  0.02171 -0.05148 -0.01053  0.09610 -0.00913
  7   c           x   0.02011 -0.01105  0.09835 -0.08084 -0.10541 -0.02546
                  y  -0.08586 -0.07841 -0.50880 -0.13012 -0.07033  0.00225
                  z  -0.02649 -0.01658  0.09178 -0.11225 -0.03699 -0.05078
  8   c           x   0.02122  0.00218  0.03145  0.00616 -0.12561  0.00693
                  y   0.06930 -0.03004 -0.11329 -0.01909 -0.02355 -0.20810
                  z  -0.02743 -0.00736  0.01176 -0.04614 -0.03578  0.00369
  9   c           x  -0.00341  0.00804 -0.01555  0.01940  0.05153  0.02817
                  y   0.02338 -0.33969  0.11820  0.02472 -0.03977  0.32332
                  z  -0.03569  0.02825 -0.06729  0.01041  0.08460  0.01097
 10   c           x   0.02569  0.00411 -0.00337  0.03046  0.03856  0.00180
                  y   0.20187 -0.34247  0.10192  0.21854  0.15363 -0.30709
                  z  -0.04976  0.00874  0.00306 -0.06789 -0.08884  0.00766
 11   h           x   0.03756  0.00567  0.01476  0.00039  0.01833 -0.02992
                  y   0.33988 -0.33139  0.10094  0.35030  0.30996 -0.23852
                  z  -0.06230  0.01041  0.00829 -0.10720 -0.12070 -0.01969
 12   h           x  -0.02933 -0.00122  0.03036  0.00564 -0.07655  0.11247
                  y  -0.06781 -0.48581  0.42850  0.16428 -0.15237  0.78674
                  z  -0.02961  0.01166 -0.05088  0.03628  0.15035  0.01910

reduced mass(g/mol)    15.907   11.076   11.314   14.574   14.985    4.743


       mode              13       14       15       16       17       18

     frequency         326.18   399.69   409.99   470.42   503.31   580.26

     symmetry            a        a        a        a        a        a   

        IR               YES      YES      YES      YES      YES      YES
|dDIP/dQ|   (a.u.)     0.0010   0.0030   0.0011   0.0015   0.0028   0.0009
intensity (km/mol)       1.85    16.37     2.24     3.79    14.25     1.47
intensity (  %   )       0.43     3.76     0.51     0.87     3.27     0.34
 
       RAMAN             YES      YES      YES      YES      YES      YES
 
  1   f           x   0.17375 -0.22680 -0.13729  0.12145 -0.03818  0.01262
                  y   0.06200 -0.06074 -0.01493 -0.04270 -0.00309 -0.02926
                  z  -0.17906  0.14826 -0.04986 -0.08606  0.07705  0.13781
  2   f           x  -0.05400  0.23824 -0.40919 -0.00424  0.01182 -0.08648
                  y   0.08231 -0.00739  0.02830 -0.07710 -0.04374 -0.01166
                  z   0.48015  0.17709 -0.03827 -0.07623 -0.02994  0.12088
  3   f           x  -0.15336 -0.36694  0.05000 -0.08410 -0.03623  0.04819
                  y  -0.00810  0.00858 -0.00487  0.10703 -0.01059 -0.01272
                  z  -0.17965 -0.15606 -0.14545 -0.01207 -0.01942 -0.07437
  4   f           x   0.02645  0.09380  0.45664 -0.03078  0.04656 -0.05093
                  y  -0.00148  0.00879  0.00492  0.06119 -0.03129  0.00434
                  z   0.49816 -0.14091 -0.03694 -0.00656  0.03755 -0.11898
  5   c           x   0.05505 -0.11878 -0.09525  0.05436  0.01762 -0.13545
                  y  -0.02685  0.13412 -0.00364  0.25399 -0.12704 -0.06250
                  z  -0.23869  0.19768 -0.03135  0.05281  0.03133 -0.04363
  6   c           x  -0.05188  0.19495 -0.33549  0.02179  0.02261 -0.02523
                  y  -0.05390 -0.06282 -0.01152  0.34199  0.20787  0.17804
                  z  -0.10831  0.16667  0.10467  0.04845  0.02324 -0.17224
  7   c           x  -0.02361 -0.15902  0.04561  0.00168  0.01220 -0.12603
                  y  -0.07081  0.05336  0.03228 -0.43154 -0.06998  0.02320
                  z  -0.21231 -0.20831 -0.12880  0.05250 -0.04149  0.05523
  8   c           x   0.04115  0.08985  0.37370 -0.00011  0.02331 -0.03614
                  y   0.01934 -0.14448 -0.05869 -0.26403  0.24327 -0.05732
                  z  -0.08633 -0.16221  0.01997  0.00220 -0.07343  0.14650
  9   c           x  -0.04953  0.21096  0.00347 -0.03455 -0.01698  0.17476
                  y  -0.14746  0.04354 -0.04292 -0.09100  0.02462 -0.03457
                  z  -0.15833  0.15130  0.27141  0.10043  0.01094 -0.18005
 10   c           x   0.04200  0.18582  0.07355 -0.02870 -0.01385  0.20172
                  y   0.09465  0.02801  0.07215  0.16017 -0.04133  0.07545
                  z  -0.14472 -0.18798  0.18002  0.02413 -0.05410  0.09690
 11   h           x  -0.01151  0.08116 -0.19354 -0.10309 -0.13620  0.43659
                  y  -0.02101  0.27922  0.13538  0.08842 -0.84892 -0.17666
                  z  -0.16436 -0.28511  0.00412 -0.01121 -0.01144  0.27830
 12   h           x  -0.01041  0.03986  0.16283 -0.11324 -0.09696  0.36824
                  y  -0.31361  0.06111 -0.24120 -0.63870 -0.30803 -0.35165
                  z  -0.20917  0.26098  0.13852  0.07844  0.01527 -0.35050

reduced mass(g/mol)    14.412   11.846   13.223    7.523    2.843    4.982


       mode              19       20       21       22       23       24

     frequency         600.36   616.63   675.78   728.59   785.67   926.50

     symmetry            a        a        a        a        a        a   

        IR               YES      YES      YES      YES      YES      YES
|dDIP/dQ|   (a.u.)     0.0016   0.0048   0.0048   0.0026   0.0023   0.0074
intensity (km/mol)       4.46    40.45    40.13    11.74     9.46    96.05
intensity (  %   )       1.02     9.29     9.21     2.70     2.17    22.05
 
       RAMAN             YES      YES      YES      YES      YES      YES
 
  1   f           x   0.08220  0.01132 -0.07022 -0.02556 -0.00246  0.13316
                  y   0.00011  0.00892 -0.11901 -0.06679 -0.00995  0.07582
                  z  -0.10693 -0.03852  0.14955  0.12304  0.00549 -0.11719
  2   f           x  -0.01174  0.01646 -0.15724  0.24912 -0.00369  0.12910
                  y   0.02955  0.01316  0.03180 -0.00840 -0.00648 -0.00681
                  z   0.04091 -0.00637  0.04297 -0.00175 -0.00048  0.03412
  3   f           x  -0.02999  0.00270  0.10559 -0.03012  0.00290  0.13078
                  y   0.01049 -0.01456  0.06196 -0.01949  0.00138  0.01823
                  z  -0.13113 -0.00542  0.23516 -0.13907  0.00141  0.09004
  4   f           x  -0.06065 -0.02016  0.11228  0.27318  0.01375  0.14942
                  y  -0.05035  0.02646  0.01926  0.01955  0.00273  0.00027
                  z  -0.07891 -0.00922  0.04789  0.01663 -0.00278 -0.02356
  5   c           x  -0.07159  0.00471 -0.09237 -0.10404 -0.00987 -0.40544
                  y   0.28015  0.01072  0.33304  0.14709  0.03226 -0.12354
                  z   0.00454 -0.01328  0.13175 -0.01678  0.00878 -0.08525
  6   c           x  -0.04071  0.00396 -0.05419  0.07064 -0.00390 -0.02876
                  y  -0.27752 -0.11435 -0.16914 -0.04210  0.04126  0.03842
                  z   0.00222  0.01721 -0.12714 -0.15519  0.00790 -0.03534
  7   c           x  -0.08104 -0.00515  0.06859 -0.10481 -0.00704 -0.34674
                  y  -0.34267  0.06189 -0.14887 -0.02558 -0.01310 -0.03384
                  z   0.02877 -0.00204  0.10349  0.04015 -0.00192  0.15849
  8   c           x  -0.03855 -0.01048  0.04255  0.08500 -0.00045 -0.04471
                  y   0.38366 -0.11948 -0.02558 -0.01551 -0.00087  0.01119
                  z   0.07574  0.02877 -0.18324  0.14795  0.00641  0.02309
  9   c           x   0.14590  0.00527 -0.00248 -0.32271 -0.02254  0.01451
                  y   0.12259  0.07345  0.11305  0.04716 -0.15963 -0.00758
                  z   0.10374  0.03774 -0.27534 -0.28851 -0.01384  0.17433
 10   c           x   0.08203 -0.00094  0.05969 -0.32032  0.01808  0.00311
                  y  -0.14455  0.13016 -0.04794  0.00889  0.07067 -0.02399
                  z   0.19485  0.01382 -0.35105  0.27633 -0.01865 -0.20473
 11   h           x   0.15028 -0.10735  0.01531 -0.25177 -0.00248 -0.31687
                  y  -0.36110 -0.93092 -0.39243  0.00252 -0.33327  0.03331
                  z   0.27409  0.10427 -0.34138  0.32045  0.02540 -0.41492
 12   h           x   0.27744 -0.05576 -0.09394 -0.24668  0.11117 -0.27889
                  y   0.29525 -0.21463 -0.14478 -0.01583  0.91582 -0.02247
                  z   0.04497  0.03793 -0.26269 -0.34595  0.04090  0.36297

reduced mass(g/mol)     8.033    1.698    9.025    9.440    1.402    7.412


       mode              25       26       27       28       29       30

     frequency        1001.30  1128.83  1165.80  1243.01  1293.86  1373.09

     symmetry            a        a        a        a        a        a   

        IR               YES      YES      YES      YES      YES      YES
|dDIP/dQ|   (a.u.)     0.0087   0.0038   0.0078   0.0100   0.0048   0.0110
intensity (km/mol)     134.36    25.65   109.37   176.48    40.39   214.64
intensity (  %   )      30.85     5.89    25.11    40.52     9.27    49.28
 
       RAMAN             YES      YES      YES      YES      YES      YES
 
  1   f           x   0.04824  0.03173 -0.03478 -0.00697 -0.00774 -0.03768
                  y   0.04923  0.03510 -0.03667 -0.00571 -0.00699 -0.02877
                  z  -0.10362 -0.05939  0.06528  0.00312  0.02314  0.04535
  2   f           x  -0.09218 -0.04215 -0.08388  0.11159 -0.10319 -0.05323
                  y   0.00823  0.00248  0.00604 -0.00870  0.00573  0.00186
                  z  -0.02460 -0.00168  0.00190 -0.00779  0.00961 -0.02676
  3   f           x  -0.04949 -0.01226 -0.07520 -0.01895  0.02410  0.09438
                  y  -0.01217 -0.00356 -0.02757 -0.00566  0.00605  0.02344
                  z  -0.08249 -0.01049 -0.13564 -0.02761  0.04663  0.11826
  4   f           x   0.09118  0.01494  0.05494  0.09033  0.13088  0.04757
                  y  -0.00016  0.00152 -0.00192  0.00395  0.00742 -0.00070
                  z  -0.01480  0.00237 -0.01149  0.00355  0.02423 -0.02195
  5   c           x   0.03751 -0.01225  0.16598  0.08060 -0.00330  0.32622
                  y  -0.06548 -0.05192  0.05281  0.00916  0.00780  0.05540
                  z   0.21253  0.18595 -0.17122 -0.01921 -0.08338 -0.20150
  6   c           x   0.08896  0.06976  0.11396 -0.25498  0.23025  0.09580
                  y  -0.01814 -0.01082 -0.00871  0.00922 -0.00661 -0.02250
                  z   0.14773  0.01025 -0.09282  0.06966 -0.05547  0.27194
  7   c           x  -0.03925 -0.03203  0.05374  0.02968 -0.03902 -0.45723
                  y   0.01426  0.01112  0.04233  0.01383 -0.00855 -0.04972
                  z   0.10199  0.02574  0.29816  0.08302 -0.06709 -0.23837
  8   c           x  -0.08666 -0.01187 -0.09845 -0.19503 -0.24509 -0.06787
                  y   0.00608 -0.00463  0.02561 -0.00894 -0.02323  0.02034
                  z   0.10866 -0.03364  0.17421 -0.01993 -0.17043  0.13863
  9   c           x  -0.09253  0.07526  0.08774 -0.03289  0.14575 -0.07523
                  y   0.01473 -0.01085 -0.01236  0.01285 -0.01522  0.02129
                  z  -0.15048 -0.05647  0.07907  0.05063  0.09613 -0.09742
 10   c           x   0.08615 -0.08323 -0.04152  0.00440 -0.21662  0.11078
                  y  -0.02250  0.01181 -0.00995 -0.00142  0.02487 -0.01437
                  z  -0.09431  0.03251 -0.13736 -0.09293  0.05397 -0.00102
 11   h           x   0.65493 -0.55152 -0.62626  0.37263  0.59221 -0.38248
                  y  -0.00697  0.01234  0.02493 -0.01386  0.00143  0.03408
                  z   0.23926 -0.24594 -0.50247  0.12890  0.58370 -0.32271
 12   h           x  -0.54304  0.63031 -0.10917  0.69785  0.10312  0.22517
                  y   0.00296 -0.02336  0.03895 -0.09583  0.01801 -0.07993
                  z   0.12489 -0.40814  0.22135 -0.43622  0.15987 -0.32074

reduced mass(g/mol)     3.542    1.843    4.516    2.899    4.225    7.721


       mode              31       32       33       34       35       36

     frequency        1416.31  1504.26  1549.53  1859.56  3219.16  3266.35

     symmetry            a        a        a        a        a        a   

        IR               YES      YES      YES      YES      YES      YES
|dDIP/dQ|   (a.u.)     0.0154   0.0014   0.0038   0.0157   0.0010   0.0010
intensity (km/mol)     424.04     3.60    26.20   435.53     1.63     1.89
intensity (  %   )      97.36     0.83     6.02   100.00     0.37     0.44
 
       RAMAN             YES      YES      YES      YES      YES      YES
 
  1   f           x  -0.00236  0.00365  0.00038 -0.00310 -0.00001 -0.00003
                  y   0.00363 -0.00507  0.00416 -0.00734 -0.00020 -0.00006
                  z  -0.00961  0.01017 -0.00801  0.00105  0.00011  0.00002
  2   f           x   0.03926 -0.00609  0.04109  0.02411  0.00040  0.00004
                  y  -0.00286 -0.00085 -0.00599 -0.00981  0.00004  0.00007
                  z   0.00998 -0.01290 -0.00067 -0.00968 -0.00011 -0.00004
  3   f           x   0.00734 -0.01921 -0.00498  0.00967 -0.00002  0.00006
                  y   0.00569 -0.00673 -0.00987  0.01700 -0.00003  0.00017
                  z   0.03015 -0.02361 -0.02871  0.02644 -0.00008  0.00006
  4   f           x   0.07506  0.03501 -0.04252  0.00601 -0.00004 -0.00042
                  y   0.00461  0.00295  0.00081  0.00114  0.00006 -0.00009
                  z  -0.00050  0.01444  0.01214 -0.01205  0.00000 -0.00019
  5   c           x   0.07844 -0.19135  0.17544 -0.30477 -0.00004  0.00039
                  y  -0.00639  0.00729 -0.00588  0.02493  0.00032  0.00002
                  z   0.13444 -0.22235 -0.02221 -0.17109  0.00019  0.00003
  6   c           x  -0.16134  0.06783 -0.23543 -0.04778 -0.00189 -0.00071
                  y   0.00966  0.00926  0.01345  0.03253  0.00023 -0.00014
                  z  -0.13177  0.31435  0.13673  0.42089  0.00218  0.00055
  7   c           x   0.02377  0.14650 -0.22783  0.32537 -0.00022 -0.00048
                  y  -0.00699  0.01444  0.02962 -0.06455  0.00008 -0.00032
                  z  -0.14451  0.17814  0.23328 -0.26372  0.00005  0.00070
  8   c           x  -0.22871 -0.18757  0.21946 -0.04356  0.00029  0.00247
                  y  -0.00879 -0.02500 -0.01170  0.01898  0.00004  0.00024
                  z   0.03144 -0.31356 -0.21046  0.43515 -0.00006  0.00250
  9   c           x   0.12510 -0.03882  0.33270  0.33984 -0.04563 -0.00892
                  y  -0.01487  0.00405 -0.03032 -0.01380  0.00910  0.00126
                  z  -0.05485 -0.17379 -0.19092 -0.23532 -0.07195 -0.00826
 10   c           x   0.06509  0.25040 -0.22423 -0.31719 -0.00221  0.04529
                  y   0.00335  0.00222  0.01623  0.00376  0.00108 -0.01035
                  z   0.10149  0.26214  0.03950 -0.19020  0.00866 -0.07360
 11   h           x  -0.48623 -0.58872  0.13705 -0.09414  0.05833 -0.51091
                  y   0.03253  0.02464 -0.02696  0.01773 -0.01632  0.12200
                  z  -0.21835 -0.23107  0.28688 -0.04799 -0.10179  0.83849
 12   h           x  -0.59863 -0.22320 -0.50145 -0.02425  0.52793  0.06439
                  y   0.04531  0.01194  0.09640 -0.05847 -0.11048 -0.01293
                  z   0.41227 -0.07994  0.35660 -0.00921  0.82923  0.09470

reduced mass(g/mol)     3.096    7.003    6.656   11.854    1.090    1.093
 

 <geterg> : there is no data group $energy 


         **************************************************************
         *                                                            *
         *  zero point VIBRATIONAL energy  :      0.0642629  Hartree  *
         *                                                            *
         **************************************************************




 time elapsed for vibrational analysis     0.07 sec


    ------------------------------------------------------------------------
         total  cpu-time :   0.14 seconds
         total wall-time :   0.14 seconds
    ------------------------------------------------------------------------


   ****  force : all done  ****


    2017-12-07 16:22:03.395 

